/*--------------------------------*- C++ -*----------------------------------*\
| =========                 |                                                 |
| \\      /  F ield         | foam-extend: Open Source CFD                    |
|  \\    /   O peration     | Version:     5.0                                |
|   \\  /    A nd           | Web:         http://www.foam-extend.org         |
|    \\/     M anipulation  | For copyright notice see file Copyright         |
\*---------------------------------------------------------------------------*/
FoamFile
{
    version     2.0;
    format      ascii;
    class       polyBoundaryMesh;
    object      boundary;
}
// * * * * * * * * * * * * * * * * * * * * * * * * * * * * * * * * * * * * * //

5
(
    movingWall
    {
        type wall;
        nFaces 10;
        startFace 180;
    }
    left
    {
        type wall;
        nFaces 10;
        startFace 190;
    }
    right
    {
        type regionCouple;
        nFaces 10;
        startFace 200;

        shadowRegion    solid;
        shadowPatch     left;
        attached        off;
        isWall          on;

        zone            rightZone;
        master          on;
        bridgeOverlap   off;
    }
    bottom
    {
        type wall;
        nFaces 10;
        startFace 210;
    }
    frontAndBack
    {
        type empty;
        nFaces 200;
        startFace 220;
    }
)

// ************************************************************************* //
