/*--------------------------------*- C++ -*----------------------------------*\
| =========                 |                                                 |
| \\      /  F ield         | foam-extend: Open Source CFD                    |
|  \\    /   O peration     | Version:     4.0                                |
|   \\  /    A nd           | Web:         http://www.foam-extend.org         |
|    \\/     M anipulation  |                                                 |
\*---------------------------------------------------------------------------*/
FoamFile
{
    version     2.0;
    format      ascii;
    class       volScalarField;
    location    "0";
    object      epsilon;
}
// * * * * * * * * * * * * * * * * * * * * * * * * * * * * * * * * * * * * * //

dimensions      [0 2 -3 0 0 0 0];

internalField   uniform 100;

boundaryField
{
    GVINLET
    {
        type            fixedValue;
        value           $internalField;
    }
    GVOUTLET
    {
        type            ggi;
        patchType       ggi;
        value           $internalField;
    }
    GVCYCLIC
    {
        type            cyclic;
        value           $internalField;
    }
    GVBLADE
    {
        type            compressible::epsilonWallFunction;
        refValue        uniform 0;
        value           $internalField;
        Cmu             0.09;
        kappa           0.41;
        E               9.8;
    }
    GVHUB
    {
        type            compressible::epsilonWallFunction;
        refValue        uniform 0;
        value           $internalField;
        Cmu             0.09;
        kappa           0.41;
        E               9.8;
    }
    GVSHROUD
    {
        type            compressible::epsilonWallFunction;
        refValue        uniform 0;
        value           $internalField;
        Cmu             0.09;
        kappa           0.41;
        E               9.8;
    }
    RUINLET
    {
        type            ggi;
        patchType       ggi;
        value           $internalField;
    }
    RUOUTLET
    {
        type            ggi;
        patchType       ggi;
        value           $internalField;
    }
    RUCYCLIC1
    {
        type            cyclicGgi;
        value           $internalField;
    }
    RUCYCLIC2
    {
        type            cyclicGgi;
        value           $internalField;
    }
    RUBLADE
    {
        type            compressible::epsilonWallFunction;
        refValue        uniform 0;
        value           $internalField;
        Cmu             0.09;
        kappa           0.41;
        E               9.8;
    }
    RUHUB
    {
        type            compressible::epsilonWallFunction;
        refValue        uniform 0;
        value           $internalField;
        Cmu             0.09;
        kappa           0.41;
        E               9.8;
    }
    RUSHROUD
    {
        type            compressible::epsilonWallFunction;
        refValue        uniform 0;
        value           $internalField;
        Cmu             0.09;
        kappa           0.41;
        E               9.8;
    }
    DTINLET
    {
        type            ggi;
        patchType       ggi;
        value           $internalField;
    }
    DTOUTLET
    {
        type            inletOutlet;
        inletValue      $internalField;
        value           $internalField;
    }
    DTCYCLIC1
    {
        type            cyclicGgi;
        value           $internalField;
    }
    DTCYCLIC2
    {
        type            cyclicGgi;
        value           $internalField;
    }
    DTHUB
    {
        type            compressible::epsilonWallFunction;
        refValue        uniform 0;
        value           $internalField;
        Cmu             0.09;
        kappa           0.41;
        E               9.8;
    }
    DTSHROUD
    {
        type            compressible::epsilonWallFunction;
        refValue        uniform 0;
        value           $internalField;
        Cmu             0.09;
        kappa           0.41;
        E               9.8;
    }
}


// ************************************************************************* //
