/*--------------------------------*- C++ -*----------------------------------*\
| =========                 |                                                 |
| \\      /  F ield         | foam-extend: Open Source CFD                    |
|  \\    /   O peration     | Version:     5.0                                |
|   \\  /    A nd           | Web:         http://www.foam-extend.org         |
|    \\/     M anipulation  | For copyright notice see file Copyright         |
\*---------------------------------------------------------------------------*/
FoamFile
{
    version     2.0;
    format      ascii;
    class       volScalarField;
    object      p;
}
// * * * * * * * * * * * * * * * * * * * * * * * * * * * * * * * * * * * * * //

dimensions      [1 -1 -2 0 0 0 0];

internalField   uniform 101325;

boundaryField
{
    GVINLET
    {
        type            isentropicTotalPressure;
        p0              uniform 1.4e5;
        value           $internalField;
    }
    GVOUTLET
    {
        type            ggi;
        value           $internalField;
    }
    GVCYCLIC
    {
        type            cyclic;
    }
    GVBLADE
    {
        type            zeroGradient;
    }
    GVHUB
    {
        type            zeroGradient;
    }
    GVSHROUD
    {
        type            zeroGradient;
    }
    RUINLET
    {
        type            ggi;
        value           $internalField;
    }
    RUOUTLET
    {
        type            ggi;
        value           $internalField;
    }
    RUCYCLIC1
    {
        type            cyclicGgi;
    }
    RUCYCLIC2
    {
        type            cyclicGgi;
    }
    RUBLADE
    {
        type            zeroGradient;
    }
    RUHUB
    {
        type            zeroGradient;
    }
    RUSHROUD
    {
        type            zeroGradient;
    }
    DTINLET
    {
        type            ggi;
        value           $internalField;
    }
    DTOUTLET
    {
        type            fixedValue;
        value           uniform 101325;
    }
    DTCYCLIC1
    {
        type            cyclicGgi;
    }
    DTCYCLIC2
    {
        type            cyclicGgi;
    }
    DTHUB
    {
        type            zeroGradient;
    }
    DTSHROUD
    {
        type            zeroGradient;
    }
}

// ************************************************************************* //
