/*--------------------------------*- C++ -*----------------------------------*\
| =========                 |                                                 |
| \\      /  F ield         | foam-extend: Open Source CFD                    |
|  \\    /   O peration     | Version:     5.0                                |
|   \\  /    A nd           | Web:         http://www.foam-extend.org         |
|    \\/     M anipulation  | For copyright notice see file Copyright         |
\*---------------------------------------------------------------------------*/
FoamFile
{
    version     2.0;
    format      ascii;
    class       polyBoundaryMesh;
    location    "constant/polyMesh";
    object      boundary;
}
// * * * * * * * * * * * * * * * * * * * * * * * * * * * * * * * * * * * * * //

6
(
    ibCylinder
    {
        type            immersedBoundary;
        nFaces          0;
        startFace       59600;

        internalFlow    no;
        isWall          yes;
    }
    in
    {
        type            patch;
        nFaces          100;
        startFace       59600;
    }
    out
    {
        type            patch;
        nFaces          100;
        startFace       59700;
    }
    top
    {
        type            patch;
        nFaces          300;
        startFace       59800;
    }
    bottom
    {
        type            patch;
        nFaces          300;
        startFace       60100;
    }
    frontAndBack
    {
        type            empty;
        nFaces          60000;
        startFace       60400;
    }
)

// ************************************************************************* //
